<?xml version="1.0" encoding="UTF-8"?>

<!-- generated on 2022-06-17 22:17:18 by Eclipse SUMO GUI Version 1.11.0
<configuration xmlns:xsi="http://www.w3.org/2001/XMLSchema-instance" xsi:noNamespaceSchemaLocation="http://sumo.dlr.de/xsd/sumoConfiguration.xsd">

    <input>
        <net-file value="map/onramp%20200.net.xml"/>
        <route-files value="map/onramp.rou.xml"/>
    </input>

    <output>
        <tripinfo-output value="tripinfo.xml"/>
    </output>

    <time>
        <begin value="0"/>
        <step-length value="1"/>
    </time>

    <processing>
        <collision.action value="none"/>
    </processing>

    <traci_server>
        <remote-port value="53956"/>
    </traci_server>

    <gui_only>
        <tracker-interval value="1"/>
    </gui_only>

</configuration>
-->

<tripinfos xmlns:xsi="http://www.w3.org/2001/XMLSchema-instance" xsi:noNamespaceSchemaLocation="http://sumo.dlr.de/xsd/tripinfo_file.xsd">
    <tripinfo id="flow_0.0" depart="0.00" departLane="gneE4_2" departPos="5.10" departSpeed="0.00" departDelay="0.00" arrival="46.00" arrivalLane="gneE6_2" arrivalPos="200.00" arrivalSpeed="13.64" duration="46.00" routeLength="606.76" waitingTime="0.00" waitingCount="0" stopTime="0.00" timeLoss="4.71" rerouteNo="1" devices="tripinfo_flow_0.0 routing_flow_0.0" vType="DEFAULT_VEHTYPE" speedFactor="1.06" vaporized=""/>
    <tripinfo id="flow_0.1" depart="3.00" departLane="gneE4_1" departPos="5.10" departSpeed="0.00" departDelay="0.00" arrival="51.00" arrivalLane="gneE6_1" arrivalPos="200.00" arrivalSpeed="13.92" duration="48.00" routeLength="606.76" waitingTime="0.00" waitingCount="0" stopTime="0.00" timeLoss="4.60" rerouteNo="1" devices="tripinfo_flow_0.1 routing_flow_0.1" vType="DEFAULT_VEHTYPE" speedFactor="1.01" vaporized=""/>
    <tripinfo id="flow_0.2" depart="6.00" departLane="gneE4_2" departPos="5.10" departSpeed="0.00" departDelay="0.00" arrival="54.00" arrivalLane="gneE6_2" arrivalPos="200.00" arrivalSpeed="14.07" duration="48.00" routeLength="606.76" waitingTime="0.00" waitingCount="0" stopTime="0.00" timeLoss="5.21" rerouteNo="1" devices="tripinfo_flow_0.2 routing_flow_0.2" vType="DEFAULT_VEHTYPE" speedFactor="1.03" vaporized=""/>
    <tripinfo id="flow_0.3" depart="9.00" departLane="gneE4_0" departPos="5.10" departSpeed="0.00" departDelay="0.00" arrival="67.00" arrivalLane="gneE6_0" arrivalPos="200.00" arrivalSpeed="10.73" duration="58.00" routeLength="606.76" waitingTime="0.00" waitingCount="0" stopTime="0.00" timeLoss="5.22" rerouteNo="1" devices="tripinfo_flow_0.3 routing_flow_0.3" vType="DEFAULT_VEHTYPE" speedFactor="0.83" vaporized=""/>
    <tripinfo id="flow_0.4" depart="12.00" departLane="gneE4_2" departPos="5.10" departSpeed="0.00" departDelay="0.00" arrival="67.00" arrivalLane="gneE6_2" arrivalPos="200.00" arrivalSpeed="11.09" duration="55.00" routeLength="606.76" waitingTime="0.00" waitingCount="0" stopTime="0.00" timeLoss="5.62" rerouteNo="1" devices="tripinfo_flow_0.4 routing_flow_0.4" vType="DEFAULT_VEHTYPE" speedFactor="0.89" vaporized=""/>
    <tripinfo id="flow_1.4" depart="18.00" departLane="gneE7_0" departPos="5.10" departSpeed="0.00" departDelay="0.00" arrival="69.00" arrivalLane="gneE6_0" arrivalPos="200.00" arrivalSpeed="13.30" duration="51.00" routeLength="606.70" waitingTime="0.00" waitingCount="0" stopTime="0.00" timeLoss="7.54" rerouteNo="1" devices="tripinfo_flow_1.4 routing_flow_1.4" vType="DEFAULT_VEHTYPE" speedFactor="1.03" vaporized=""/>
    <tripinfo id="flow_1.5" depart="23.00" departLane="gneE7_0" departPos="5.10" departSpeed="0.00" departDelay="0.50" arrival="71.00" arrivalLane="gneE6_0" arrivalPos="200.00" arrivalSpeed="15.05" duration="48.00" routeLength="606.70" waitingTime="0.00" waitingCount="0" stopTime="0.00" timeLoss="8.18" rerouteNo="1" devices="tripinfo_flow_1.5 routing_flow_1.5" vType="DEFAULT_VEHTYPE" speedFactor="1.12" vaporized=""/>
    <tripinfo id="flow_0.5" depart="15.00" departLane="gneE4_1" departPos="5.10" departSpeed="0.00" departDelay="0.00" arrival="72.00" arrivalLane="gneE6_1" arrivalPos="200.00" arrivalSpeed="11.25" duration="57.00" routeLength="606.76" waitingTime="0.00" waitingCount="0" stopTime="0.00" timeLoss="5.53" rerouteNo="1" devices="tripinfo_flow_0.5 routing_flow_0.5" vType="DEFAULT_VEHTYPE" speedFactor="0.86" vaporized=""/>
    <tripinfo id="flow_0.6" depart="18.00" departLane="gneE4_1" departPos="5.10" departSpeed="0.00" departDelay="0.00" arrival="74.00" arrivalLane="gneE6_1" arrivalPos="200.00" arrivalSpeed="14.67" duration="56.00" routeLength="606.76" waitingTime="0.00" waitingCount="0" stopTime="0.00" timeLoss="15.06" rerouteNo="1" devices="tripinfo_flow_0.6 routing_flow_0.6" vType="DEFAULT_VEHTYPE" speedFactor="1.09" vaporized=""/>
    <tripinfo id="flow_0.7" depart="21.00" departLane="gneE4_1" departPos="5.10" departSpeed="0.00" departDelay="0.00" arrival="75.00" arrivalLane="gneE6_1" arrivalPos="200.00" arrivalSpeed="13.74" duration="54.00" routeLength="606.76" waitingTime="0.00" waitingCount="0" stopTime="0.00" timeLoss="12.06" rerouteNo="1" devices="tripinfo_flow_0.7 routing_flow_0.7" vType="DEFAULT_VEHTYPE" speedFactor="1.05" vaporized=""/>
    <tripinfo id="flow_0.11" depart="33.00" departLane="gneE4_0" departPos="5.10" departSpeed="0.00" departDelay="0.00" arrival="76.00" arrivalLane="gneE6_0" arrivalPos="200.00" arrivalSpeed="15.07" duration="43.00" routeLength="606.76" waitingTime="0.00" waitingCount="0" stopTime="0.00" timeLoss="4.93" rerouteNo="1" devices="tripinfo_flow_0.11 routing_flow_0.11" vType="DEFAULT_VEHTYPE" speedFactor="1.16" vaporized=""/>
    <tripinfo id="flow_0.8" depart="24.00" departLane="gneE4_1" departPos="5.10" departSpeed="0.00" departDelay="0.00" arrival="77.00" arrivalLane="gneE6_1" arrivalPos="200.00" arrivalSpeed="13.56" duration="53.00" routeLength="606.76" waitingTime="0.00" waitingCount="0" stopTime="0.00" timeLoss="8.47" rerouteNo="1" devices="tripinfo_flow_0.8 routing_flow_0.8" vType="DEFAULT_VEHTYPE" speedFactor="0.99" vaporized=""/>
    <tripinfo id="flow_0.9" depart="27.00" departLane="gneE4_1" departPos="5.10" departSpeed="0.00" departDelay="0.00" arrival="80.00" arrivalLane="gneE6_1" arrivalPos="200.00" arrivalSpeed="11.78" duration="53.00" routeLength="606.76" waitingTime="0.00" waitingCount="0" stopTime="0.00" timeLoss="5.22" rerouteNo="1" devices="tripinfo_flow_0.9 routing_flow_0.9" vType="DEFAULT_VEHTYPE" speedFactor="0.93" vaporized=""/>
    <tripinfo id="flow_0.10" depart="30.00" departLane="gneE4_2" departPos="5.10" departSpeed="0.00" departDelay="0.00" arrival="82.00" arrivalLane="gneE6_2" arrivalPos="200.00" arrivalSpeed="12.76" duration="52.00" routeLength="606.76" waitingTime="0.00" waitingCount="0" stopTime="0.00" timeLoss="4.95" rerouteNo="1" devices="tripinfo_flow_0.10 routing_flow_0.10" vType="DEFAULT_VEHTYPE" speedFactor="0.94" vaporized=""/>
    <tripinfo id="flow_1.7" depart="32.00" departLane="gneE7_0" departPos="5.10" departSpeed="0.00" departDelay="0.50" arrival="85.00" arrivalLane="gneE6_0" arrivalPos="200.00" arrivalSpeed="11.75" duration="53.00" routeLength="606.70" waitingTime="0.00" waitingCount="0" stopTime="0.00" timeLoss="5.74" rerouteNo="1" devices="tripinfo_flow_1.7 routing_flow_1.7" vType="DEFAULT_VEHTYPE" speedFactor="0.94" vaporized=""/>
    <tripinfo id="flow_0.12" depart="36.00" departLane="gneE4_0" departPos="5.10" departSpeed="0.00" departDelay="0.00" arrival="87.00" arrivalLane="gneE6_0" arrivalPos="200.00" arrivalSpeed="13.36" duration="51.00" routeLength="606.76" waitingTime="0.00" waitingCount="0" stopTime="0.00" timeLoss="7.40" rerouteNo="1" devices="tripinfo_flow_0.12 routing_flow_0.12" vType="DEFAULT_VEHTYPE" speedFactor="1.02" vaporized=""/>
    <tripinfo id="flow_0.13" depart="39.00" departLane="gneE4_0" departPos="5.10" departSpeed="0.00" departDelay="0.00" arrival="89.00" arrivalLane="gneE6_0" arrivalPos="200.00" arrivalSpeed="12.85" duration="50.00" routeLength="606.76" waitingTime="0.00" waitingCount="0" stopTime="0.00" timeLoss="5.13" rerouteNo="1" devices="tripinfo_flow_0.13 routing_flow_0.13" vType="DEFAULT_VEHTYPE" speedFactor="0.98" vaporized=""/>
    <tripinfo id="flow_1.9" depart="41.00" departLane="gneE7_0" departPos="5.10" departSpeed="0.00" departDelay="0.50" arrival="96.00" arrivalLane="gneE6_0" arrivalPos="200.00" arrivalSpeed="11.22" duration="55.00" routeLength="606.70" waitingTime="0.00" waitingCount="0" stopTime="0.00" timeLoss="5.66" rerouteNo="1" devices="tripinfo_flow_1.9 routing_flow_1.9" vType="DEFAULT_VEHTYPE" speedFactor="0.89" vaporized=""/>
</tripinfos>
